    -----------------------------------------------------------------------
          Psi4: An Open-Source Ab Initio Electronic Structure Package
                              Psi4 1.0.54 Driver

                          Git: Rev {master} 8d4cec3 dirty

    J. M. Turney, A. C. Simmonett, R. M. Parrish, E. G. Hohenstein,
    F. A. Evangelista, J. T. Fermann, B. J. Mintz, L. A. Burns, J. J. Wilke,
    M. L. Abrams, N. J. Russ, M. L. Leininger, C. L. Janssen, E. T. Seidl,
    W. D. Allen, H. F. Schaefer, R. A. King, E. F. Valeev, C. D. Sherrill,
    and T. D. Crawford, WIREs Comput. Mol. Sci. 2, 556-565 (2012)
    (doi: 10.1002/wcms.93)

                         Additional Contributions by
    A. E. DePrince, U. Bozkaya, A. Yu. Sokolov, D. G. A. Smith, R. Di Remigio,
    R. M. Richard, J. F. Gonthier, H. R. McAlexander, M. Saitow, and
    B. P. Pritchard
    -----------------------------------------------------------------------


    Psi4 started on: Fri Sep  9 09:13:18 2016

    Process ID:  25420
    PSI4DATADIR: /home/eric/opt/apps/python/anaconda2/share/psi4
    Memory level set to 256.000 MB

  ==> Input File <==

--------------------------------------------------------------------------
memory 2000 mb

molecule {
0 1
C 0.0 0.0 0.0
C 0.0 0.0 1.27273
}

set {
  basis cc-pvdz
  reference rhf
  scf_type direct
}

energy('scf')
--------------------------------------------------------------------------

  Memory set to   2.000 GiB by Python script.

*** tstart() called on copper
*** at Fri Sep  9 09:13:18 2016


         ---------------------------------------------------------
                                   SCF
            by Justin Turney, Rob Parrish, and Andy Simmonett
                              RHF Reference
                        1 Threads,   2000 MiB Core
         ---------------------------------------------------------

  ==> Geometry <==

    Molecular point group: d2h
    Full point group: D_inf_h

    Geometry (in Angstrom), charge = 0, multiplicity = 1:

       Center              X                  Y                   Z               Mass       
    ------------   -----------------  -----------------  -----------------  -----------------
           C          0.000000000000     0.000000000000    -0.636365000000    12.000000000000
           C          0.000000000000     0.000000000000     0.636365000000    12.000000000000

  Running in d2h symmetry.

  Rotational constants: A = ************  B =      1.73449  C =      1.73449 [cm^-1]
  Rotational constants: A = ************  B =  51998.80742  C =  51998.80742 [MHz]
  Nuclear repulsion =   14.968123254138739

  Charge       = 0
  Multiplicity = 1
  Electrons    = 12
  Nalpha       = 6
  Nbeta        = 6

  ==> Algorithm <==

  SCF Algorithm Type is DIRECT.
  DIIS enabled.
  MOM disabled.
  Fractional occupation disabled.
  Guess Type is SAD.
  Energy threshold   = 1.00e-06
  Density threshold  = 1.00e-06
  Integral threshold = 0.00e+00

  ==> Primary Basis <==

  Basis Set: CC-PVDZ
    Number of shells: 12
    Number of basis function: 28
    Number of Cartesian functions: 30
    Spherical Harmonics?: true
    Max angular momentum: 2

  ==> Pre-Iterations <==

   -------------------------------------------------------
    Irrep   Nso     Nmo     Nalpha   Nbeta   Ndocc  Nsocc
   -------------------------------------------------------
     Ag         7       7       0       0       0       0
     B1g        1       1       0       0       0       0
     B2g        3       3       0       0       0       0
     B3g        3       3       0       0       0       0
     Au         1       1       0       0       0       0
     B1u        7       7       0       0       0       0
     B2u        3       3       0       0       0       0
     B3u        3       3       0       0       0       0
   -------------------------------------------------------
    Total      28      28       6       6       6       0
   -------------------------------------------------------

  Starting with a DF guess...

  ==> Integral Setup <==

  ==> DFJK: Density-Fitted J/K Matrices <==

    J tasked:                  Yes
    K tasked:                  Yes
    wK tasked:                  No
    OpenMP threads:              1
    Integrals threads:           1
    Memory (MB):              1430
    Algorithm:                Core
    Integral Cache:           NONE
    Schwarz Cutoff:          1E-12
    Fitting Condition:       1E-12

   => Auxiliary Basis Set <=

  Basis Set: 
    Number of shells: 48
    Number of basis function: 140
    Number of Cartesian functions: 162
    Spherical Harmonics?: true
    Max angular momentum: 3

  Minimum eigenvalue in the overlap matrix is 5.5279281336E-03.
  Using Symmetric Orthogonalization.
  SCF Guess: Superposition of Atomic Densities via on-the-fly atomic UHF.

  ==> Iterations <==

                           Total Energy        Delta E     RMS |[F,P]|

   @DF-RHF iter   0:   -75.19318005999349   -7.51932e+01   1.20333e-01 
   @DF-RHF iter   1:   -75.37276853462785   -1.79588e-01   9.40306e-03 
   @DF-RHF iter   2:   -75.38455416742119   -1.17856e-02   3.27281e-03 DIIS
   @DF-RHF iter   3:   -75.38617831244972   -1.62415e-03   8.52773e-04 DIIS
   @DF-RHF iter   4:   -75.38630555073692   -1.27238e-04   1.44886e-04 DIIS
   @DF-RHF iter   5:   -75.38630935976741   -3.80903e-06   2.30376e-05 DIIS
   @DF-RHF iter   6:   -75.38630942820626   -6.84389e-08   1.37010e-06 DIIS
   @DF-RHF iter   7:   -75.38630942851145   -3.05192e-10   1.74689e-07 DIIS

  DF guess converged.

  ==> Integral Setup <==

  ==> DirectJK: Integral-Direct J/K Matrices <==

    J tasked:                  Yes
    K tasked:                  Yes
    wK tasked:                  No
    Integrals threads:           1
    Schwarz Cutoff:          1E-12

   @RHF iter   8:   -75.38645655831615   -1.47130e-04   3.36612e-05 DIIS
   @RHF iter   9:   -75.38645665058286   -9.22667e-08   6.97947e-06 DIIS
   @RHF iter  10:   -75.38645665535665   -4.77380e-09   1.91675e-06 DIIS
   @RHF iter  11:   -75.38645665581316   -4.56509e-10   3.77833e-07 DIIS

  ==> Post-Iterations <==

    Orbital Energies (a.u.)
    -----------------------

    Doubly Occupied:                                                      

       1Ag   -11.371912     1B1u  -11.370065     2Ag    -1.050852  
       2B1u   -0.523665     1B3u   -0.448142     1B2u   -0.448142  

    Virtual:                                                              

       3Ag    -0.106630     1B2g    0.154934     1B3g    0.154934  
       3B1u    0.392292     4Ag     0.598287     2B3u    0.634830  
       2B2u    0.634830     5Ag     0.727222     2B2g    0.762364  
       2B3g    0.762364     4B1u    0.905173     1B1g    1.221102  
       6Ag     1.221102     5B1u    1.232039     3B3u    1.349918  
       3B2u    1.349918     1Au     1.617362     6B1u    1.617362  
       7Ag     2.024305     3B2g    2.081214     3B3g    2.081214  
       7B1u    2.343386  

    Final Occupation by Irrep:
             Ag   B1g   B2g   B3g    Au   B1u   B2u   B3u 
    DOCC [     2,    0,    0,    0,    0,    2,    1,    1 ]

  Energy converged.

  @RHF Final Energy:   -75.38645665581316

   => Energetics <=

    Nuclear Repulsion Energy =             14.9681232541387388
    One-Electron Energy =                -130.2835995538503653
    Two-Electron Energy =                  39.9290196438984850
    DFT Exchange-Correlation Energy =       0.0000000000000000
    Empirical Dispersion Energy =           0.0000000000000000
    PCM Polarization Energy =               0.0000000000000000
    EFP Energy =                            0.0000000000000000
    Total Energy =                        -75.3864566558131486


  Saving occupied orbitals to File 180.

*** tstop() called on copper at Fri Sep  9 09:13:19 2016
Module time:
	user time   =       0.57 seconds =       0.01 minutes
	system time =       0.01 seconds =       0.00 minutes
	total time  =          1 seconds =       0.02 minutes
Total time:
	user time   =       0.57 seconds =       0.01 minutes
	system time =       0.01 seconds =       0.00 minutes
	total time  =          1 seconds =       0.02 minutes


Properties will be evaluated at   0.000000,   0.000000,   0.000000 Bohr

Properties computed using the SCF density matrix

  Nuclear Dipole Moment: (a.u.)
     X:     0.0000      Y:     0.0000      Z:     0.0000

  Electronic Dipole Moment: (a.u.)
     X:     0.0000      Y:     0.0000      Z:     0.0000

  Dipole Moment: (a.u.)
     X:     0.0000      Y:     0.0000      Z:     0.0000     Total:     0.0000

  Dipole Moment: (Debye)
     X:     0.0000      Y:     0.0000      Z:     0.0000     Total:     0.0000


*** Psi4 exiting successfully. Buy a developer a beer!
