
                                 *****************
                                 * O   R   C   A *
                                 *****************

           --- An Ab Initio, DFT and Semiempirical electronic structure package ---

                  #######################################################
                  #                        -***-                        #
                  #  Department of molecular theory and spectroscopy    #
                  #              Directorship: Frank Neese              #
                  # Max Planck Institute for Chemical Energy Conversion #
                  #                  D-45470 Muelheim/Ruhr              #
                  #                       Germany                       #
                  #                                                     #
                  #                  All rights reserved                #
                  #                        -***-                        #
                  #######################################################


                         Program Version 3.0.3 - RELEASE   -


 With contributions from (in alphabetic order):
   Ute Becker             : Parallelization
   Dmytro Bykov           : SCF Hessian
   Dmitry Ganyushin       : Spin-Orbit,Spin-Spin,Magnetic field MRCI
   Andreas Hansen         : Spin unrestricted coupled pair/coupled cluster methods
   Dimitrios Liakos       : Extrapolation schemes; parallel MDCI
   Robert Izsak           : Overlap fitted RIJCOSX, COSX-SCS-MP3
   Christian Kollmar      : KDIIS, OOCD, Brueckner-CCSD(T), CCSD density
   Simone Kossmann        : Meta GGA functionals, TD-DFT gradient, OOMP2, MP2 Hessian
   Taras Petrenko         : DFT Hessian,TD-DFT gradient, ASA and ECA modules, normal mode analysis, Resonance Raman, ABS, FL, XAS/XES, NRVS
   Christoph Reimann      : Effective Core Potentials
   Michael Roemelt        : Restricted open shell CIS
   Christoph Riplinger    : Improved optimizer, TS searches, QM/MM, DLPNO-CCSD
   Barbara Sandhoefer     : DKH picture change effects
   Igor Schapiro          : Molecular dynamics
   Kantharuban Sivalingam : CASSCF convergence, NEVPT2
   Boris Wezisla          : Elementary symmetry handling
   Frank Wennmohs         : Technical directorship


 We gratefully acknowledge several colleagues who have allowed us to
 interface, adapt or use parts of their codes:
   Stefan Grimme, W. Hujo, H. Kruse, T. Risthaus : VdW corrections, initial TS optimization,
                                                   DFT functionals, gCP
   Ed Valeev                                     : LibInt (2-el integral package), F12 methods
   Garnet Chan, S. Sharma, R. Olivares           : DMRG
   Ulf Ekstrom                                   : XCFun DFT Library
   Mihaly Kallay                                 : mrcc  (arbitrary order and MRCC methods)
   Andreas Klamt, Michael Diedenhofen            : otool_cosmo (COSMO solvation model)
   Frank Weinhold                                : gennbo (NPA and NBO analysis)
   Christopher J. Cramer and Donald G. Truhlar   : smd solvation model


 Your calculation uses the libint2 library for the computation of 2-el integrals
 For citations please refer to: http://libint.valeyev.net

 This ORCA versions uses:
   CBLAS   interface :  Fast vector & matrix operations
   LAPACKE interface :  Fast linear algebra routines
   SCALAPACK package :  Parallel linear algebra routines


================================================================================
                                        WARNINGS
                       Please study these warnings very carefully!
================================================================================
Now building the actual basis set


INFO   : the flag for use of LIBINT has been found!

================================================================================
                                       INPUT FILE
================================================================================
NAME = cn-sto3g-orca-uhf.in
|  1> ! uhf sto-3g nori verytightscf noautostart nousesym
|  2> 
|  3> * xyz 0 2
|  4> C 0.0 0.0 0.0
|  5> N 0.0 0.0 1.1941
|  6> *
|  7> 
|  8>                          ****END OF INPUT****
================================================================================

                       ****************************
                       * Single Point Calculation *
                       ****************************

---------------------------------
CARTESIAN COORDINATES (ANGSTROEM)
---------------------------------
  C      0.000000    0.000000    0.000000
  N      0.000000    0.000000    1.194100

----------------------------
CARTESIAN COORDINATES (A.U.)
----------------------------
  NO LB      ZA    FRAG    MASS        X           Y           Z
   0 C     6.0000    0    12.011          0.000000000000000          0.000000000000000          0.000000000000000
   1 N     7.0000    0    14.007          0.000000000000000          0.000000000000000          2.256521976515367

--------------------------------
INTERNAL COORDINATES (ANGSTROEM)
--------------------------------
 C      0   0   0   0.000000     0.000     0.000
 N      1   0   0   1.194100     0.000     0.000

---------------------------
INTERNAL COORDINATES (A.U.)
---------------------------
 C      0   0   0   0.000000     0.000     0.000
 N      1   0   0   2.256522     0.000     0.000

---------------------
BASIS SET INFORMATION
---------------------
There are 2 groups of distinct atoms

 Group   1 Type C   : 6s3p contracted to 2s1p pattern {33/3}
 Group   2 Type N   : 6s3p contracted to 2s1p pattern {33/3}

Atom   0C    basis set group =>   1
Atom   1N    basis set group =>   2
------------------------------------------------------------------------------
                           ORCA GTO INTEGRAL CALCULATION
------------------------------------------------------------------------------

                         BASIS SET STATISTICS AND STARTUP INFO

 # of primitive gaussian shells          ...   18
 # of primitive gaussian functions       ...   30
 # of contracted shell                   ...    6
 # of contracted basis functions         ...   10
 Highest angular momentum                ...    1
 Maximum contraction depth               ...    3
 Integral package used                   ... LIBINT
 Integral threshhold            Thresh   ...  1.000e-12
 Primitive cut-off              TCut     ...  1.000e-14


                              INTEGRAL EVALUATION

 One electron integrals                  ... done
 Pre-screening matrix                    ... done
 Shell pair data                         ... done (   0.000 sec)

-------------------------------------------------------------------------------
                                 ORCA SCF
-------------------------------------------------------------------------------

------------
SCF SETTINGS
------------
Hamiltonian:
 Ab initio Hamiltonian  Method          .... Hartree-Fock(GTOs)


General Settings:
 Integral files         IntName         .... cn-sto3g-orca-uhf
 Hartree-Fock type      HFTyp           .... UHF
 Total Charge           Charge          ....    0
 Multiplicity           Mult            ....    2
 Number of Electrons    NEL             ....   13
 Basis Dimension        Dim             ....   10
 Nuclear Repulsion      ENuc            ....     18.6127148050 Eh

Convergence Acceleration:
 DIIS                   CNVDIIS         .... on
   Start iteration      DIISMaxIt       ....    12
   Startup error        DIISStart       ....  0.200000
   # of expansion vecs  DIISMaxEq       ....     5
   Bias factor          DIISBfac        ....   1.050
   Max. coefficient     DIISMaxC        ....  10.000
 Newton-Raphson         CNVNR           .... off
 SOSCF                  CNVSOSCF        .... off
 Level Shifting         CNVShift        .... on
   Level shift para.    LevelShift      ....    0.2500
   Turn off err/grad.   ShiftErr        ....    0.0010
 Zerner damping         CNVZerner       .... off
 Static damping         CNVDamp         .... on
   Fraction old density DampFac         ....    0.7000
   Max. Damping (<1)    DampMax         ....    0.9800
   Min. Damping (>=0)   DampMin         ....    0.0000
   Turn off err/grad.   DampErr         ....    0.1000
 Fernandez-Rico         CNVRico         .... off

SCF Procedure:
 Maximum # iterations   MaxIter         ....   125
 SCF integral mode      SCFMode         .... Direct
   Integral package                     .... LIBINT
 Reset frequeny         DirectResetFreq ....    20
 Integral Threshold     Thresh          ....  1.000e-12 Eh
 Primitive CutOff       TCut            ....  1.000e-14 Eh

Convergence Tolerance:
 Convergence Check Mode ConvCheckMode   .... Total+1el-Energy
 Energy Change          TolE            ....  1.000e-09 Eh
 1-El. energy change                    ....  1.000e-06 Eh
 DIIS Error             TolErr          ....  1.000e-08


Diagonalization of the overlap matrix:
Smallest eigenvalue                        ... 1.800e-01
Time for diagonalization                   ...    0.054 sec
Threshold for overlap eigenvalues          ... 1.000e-08
Number of eigenvalues below threshold      ... 0
Time for construction of square roots      ...    0.023 sec
Total time needed                          ...    0.077 sec

-------------------
DFT GRID GENERATION
-------------------

General Integration Accuracy     IntAcc      ...  4.340
Radial Grid Type                 RadialGrid  ... Gauss-Chebyshev
Angular Grid (max. acc.)         AngularGrid ... Lebedev-110
Angular grid pruning method      GridPruning ... 3 (G Style)
Weight generation scheme         WeightScheme... Becke
Basis function cutoff            BFCut       ...    1.0000e-12
Integration weight cutoff        WCut        ...    1.0000e-14
Grids for H and He will be reduced by one unit

# of grid points (after initial pruning)     ...   3358 (   0.0 sec)
# of grid points (after weights+screening)   ...   3331 (   0.0 sec)
nearest neighbour list constructed           ...    0.0 sec
Grid point re-assignment to atoms done       ...    0.0 sec
Grid point division into batches done        ...    0.0 sec
Reduced shell lists constructed in    0.0 sec

Total number of grid points                  ...     3331
Total number of batches                      ...       53
Average number of points per batch           ...       62
Average number of grid points per atom       ...     1666
Average number of shells per batch           ...     5.22 (87.04%)
Average number of basis functions per batch  ...     9.15 (91.48%)
Average number of large shells per batch     ...     4.74 (90.78%)
Average number of large basis fcns per batch ...     8.56 (93.52%)
Maximum spatial batch extension              ...  25.60, 31.36, 18.14 au
Average spatial batch extension              ...   7.15,  6.79,  5.83 au

Time for grid setup =    0.054 sec

------------------------------
INITIAL GUESS: MODEL POTENTIAL
------------------------------
Loading Hartree-Fock densities                     ... done
Calculating cut-offs                               ... done
Setting up the integral package                    ... done
Initializing the effective Hamiltonian             ... done
Starting the Coulomb interaction                   ... done (   0.0 sec)
Reading the grid                                   ... done
Mapping shells                                     ... done
Starting the XC term evaluation                    ... done (   0.0 sec)
Transforming the Hamiltonian                       ... done (   0.0 sec)
Diagonalizing the Hamiltonian                      ... done (   0.0 sec)
Back transforming the eigenvectors                 ... done (   0.0 sec)
Now organizing SCF variables                       ... done
                      ------------------
                      INITIAL GUESS DONE (   0.3 sec)
                      ------------------
--------------
SCF ITERATIONS
--------------
ITER       Energy         Delta-E        Max-DP      RMS-DP      [F,P]     Damp
               ***  Starting incremental Fock matrix formation  ***
  0    -90.9567740049   0.000000000000 0.04446216  0.00763493  0.1793383 0.7000
  1    -90.9729102173  -0.016136212437 0.03123265  0.00541728  0.0935605 0.7000
                               ***Turning on DIIS***
  2    -90.9804021814  -0.007491964101 0.05154752  0.00996725  0.0354733 0.0000
  3    -90.9567384065   0.023663774942 0.02144434  0.00424663  0.0479486 0.0000
  4    -91.0018701127  -0.045131706159 0.01549708  0.00300753  0.0104302 0.0000
  5    -91.0029660905  -0.001095977877 0.01529654  0.00295320  0.0084935 0.0000
  6    -91.0038530313  -0.000886940749 0.01350973  0.00249891  0.0073788 0.0000
  7    -91.0046073242  -0.000754292904 0.01470905  0.00267485  0.0070298 0.0000
  8    -91.0023305286   0.002276795637 0.02418743  0.00441479  0.0068299 0.0000
  9    -91.0064414131  -0.004110884510 0.02352392  0.00449798  0.0072422 0.0000
 10    -91.0126809677  -0.006239554636 0.08164435  0.01476957  0.0063480 0.0000
 11    -91.0233852856  -0.010704317867 0.05502109  0.00999352  0.0064443 0.0000
 12    -91.0527115775  -0.029326291903 0.11048324  0.01990145  0.0039740 0.0000
 13    -91.0078487786   0.044862798850 0.03341013  0.00621049  0.0018563 0.0000
 14    -91.0239965187  -0.016147740073 0.00433887  0.00074794  0.0005380 0.0000
 15    -91.0246346399  -0.000638121189 0.00233753  0.00040203  0.0001642 0.0000
 16    -91.0245256449   0.000108994945 0.00099966  0.00017400  0.0000638 0.0000
 17    -91.0244900871   0.000035557877 0.00057032  0.00010060  0.0000298 0.0000
 18    -91.0244583315   0.000031755600 0.00021243  0.00003849  0.0000107 0.0000
 19    -91.0244464293   0.000011902152 0.00009143  0.00001676  0.0000053 0.0000
               *** Restarting incremental Fock matrix formation ***
                                   *** Resetting DIIS ***
 20    -91.0244353124   0.000011116888 0.00000215  0.00000049  0.0000014 0.0000
 21    -91.0244349975   0.000000314955 0.00000199  0.00000041  0.0000008 0.0000
 22    -91.0244350934  -0.000000095959 0.00000131  0.00000025  0.0000002 0.0000
 23    -91.0244354344  -0.000000340966 0.00000045  0.00000008  0.0000001 0.0000
 24    -91.0244354040   0.000000030357 0.00000036  0.00000007  0.0000001 0.0000
 25    -91.0244353486   0.000000055446 0.00000054  0.00000010  0.0000001 0.0000
 26    -91.0244352450   0.000000103628 0.00000098  0.00000017  0.0000001 0.0000
 27    -91.0244352173   0.000000027624 0.00000084  0.00000015  0.0000000 0.0000
                            ***DIIS convergence achieved***

               *****************************************************
               *                     SUCCESS                       *
               *           SCF CONVERGED AFTER  28 CYCLES          *
               *****************************************************


----------------
TOTAL SCF ENERGY
----------------

Total Energy       :          -91.02443531 Eh           -2476.90081 eV

Components:
Nuclear Repulsion  :           18.61271480 Eh             506.47772 eV
Electronic Energy  :         -109.63715012 Eh           -2983.37853 eV

One Electron Energy:         -160.49665158 Eh           -4367.33592 eV
Two Electron Energy:           50.85950146 Eh            1383.95739 eV

Virial components:
Potential Energy   :         -181.64410287 Eh           -4942.78733 eV
Kinetic Energy     :           90.61966756 Eh            2465.88652 eV
Virial Ratio       :            2.00446667


---------------
SCF CONVERGENCE
---------------

  Last Energy change         ...   -9.5833e-08  Tolerance :   1.0000e-09
  Last MAX-Density change    ...    1.2444e-08  Tolerance :   1.0000e-08
  Last RMS-Density change    ...    2.0526e-09  Tolerance :   1.0000e-09
  Last DIIS Error            ...    6.3503e-09  Tolerance :   1.0000e-08

             **** THE GBW FILE WAS UPDATED (cn-sto3g-orca-uhf.gbw) ****
             **** DENSITY FILE WAS UPDATED (cn-sto3g-orca-uhf.scfp.tmp) ****
             **** ENERGY FILE WAS UPDATED (cn-sto3g-orca-uhf.en.tmp) ****
----------------------
UHF SPIN CONTAMINATION
----------------------

Expectation value of <S**2>     :     1.376843
Ideal value S*(S+1) for S=0.5   :     0.750000
Deviation                       :     0.626843

----------------
ORBITAL ENERGIES
----------------
                 SPIN UP ORBITALS
  NO   OCC          E(Eh)            E(eV) 
   0   1.0000     -15.367886      -418.1814 
   1   1.0000     -11.102074      -302.1028 
   2   1.0000      -1.156133       -31.4600 
   3   1.0000      -0.679521       -18.4907 
   4   1.0000      -0.460656       -12.5351 
   5   1.0000      -0.460656       -12.5351 
   6   1.0000      -0.456082       -12.4106 
   7   0.0000       0.354985         9.6596 
   8   0.0000       0.354985         9.6596 
   9   0.0000       1.054587        28.6968 

                 SPIN DOWN ORBITALS
  NO   OCC          E(Eh)            E(eV) 
   0   1.0000     -15.394764      -418.9128 
   1   1.0000     -11.041499      -300.4545 
   2   1.0000      -1.188281       -32.3348 
   3   1.0000      -0.526789       -14.3347 
   4   1.0000      -0.471653       -12.8343 
   5   1.0000      -0.471653       -12.8343 
   6   0.0000       0.141060         3.8384 
   7   0.0000       0.389435        10.5971 
   8   0.0000       0.389435        10.5971 
   9   0.0000       1.119859        30.4729 

                    ********************************
                    * MULLIKEN POPULATION ANALYSIS *
                    ********************************

--------------------------------------------
MULLIKEN ATOMIC CHARGES AND SPIN POPULATIONS
--------------------------------------------
   0 C :    0.143707    2.174699
   1 N :   -0.143707   -1.174699
Sum of atomic charges         :   -0.0000000
Sum of atomic spin populations:    1.0000000

-----------------------------------------------------
MULLIKEN REDUCED ORBITAL CHARGES AND SPIN POPULATIONS
-----------------------------------------------------
CHARGE
  0 C s       :     3.179671  s :     3.179671
      pz      :     0.753258  p :     2.676621
      px      :     0.961682
      py      :     0.961682
  1 N s       :     3.791818  s :     3.791818
      pz      :     1.275253  p :     3.351889
      px      :     1.038318
      py      :     1.038318

SPIN
  0 C s       :     0.488957  s :     0.488957
      pz      :     0.528674  p :     1.685742
      px      :     0.578534
      py      :     0.578534
  1 N s       :    -0.066764  s :    -0.066764
      pz      :     0.049134  p :    -1.107935
      px      :    -0.578534
      py      :    -0.578534


                     *******************************
                     * LOEWDIN POPULATION ANALYSIS *
                     *******************************

-------------------------------------------
LOEWDIN ATOMIC CHARGES AND SPIN POPULATIONS
-------------------------------------------
   0 C :    0.084352    2.103054
   1 N :   -0.084352   -1.103054

----------------------------------------------------
LOEWDIN REDUCED ORBITAL CHARGES AND SPIN POPULATIONS
----------------------------------------------------
CHARGE
  0 C s       :     3.158402  s :     3.158402
      pz      :     0.831133  p :     2.757247
      px      :     0.963057
      py      :     0.963057
  1 N s       :     3.658758  s :     3.658758
      pz      :     1.351707  p :     3.425593
      px      :     1.036943
      py      :     1.036943

SPIN
  0 C s       :     0.457101  s :     0.457101
      pz      :     0.530404  p :     1.645953
      px      :     0.557774
      py      :     0.557774
  1 N s       :    -0.038075  s :    -0.038075
      pz      :     0.050570  p :    -1.064978
      px      :    -0.557774
      py      :    -0.557774


                      *****************************
                      * MAYER POPULATION ANALYSIS *
                      *****************************

  NA   - Mulliken gross atomic population
  ZA   - Total nuclear charge
  QA   - Mulliken gross atomic charge
  VA   - Mayer's total valence
  BVA  - Mayer's bonded valence
  FA   - Mayer's free valence

  ATOM       NA         ZA         QA         VA         BVA        FA
  0 C      5.8563     6.0000     0.1437     3.9046     2.3523     1.5523
  1 N      7.1437     7.0000    -0.1437     3.0327     2.3523     0.6805

  Mayer bond orders larger than 0.1
B(  0-C ,  1-N ) :   2.3523 

-------
TIMINGS
-------

Total SCF time: 0 days 0 hours 0 min 1 sec 

Total time                  ....       1.764 sec
Sum of individual times     ....       2.064 sec  (117.0%)

Fock matrix formation       ....       1.745 sec  ( 98.9%)
Diagonalization             ....       0.005 sec  (  0.3%)
Density matrix formation    ....       0.000 sec  (  0.0%)
Population analysis         ....       0.001 sec  (  0.0%)
Initial guess               ....       0.256 sec  ( 14.5%)
Orbital Transformation      ....       0.000 sec  (  0.0%)
Orbital Orthonormalization  ....       0.000 sec  (  0.0%)
DIIS solution               ....       0.003 sec  (  0.2%)

-------------------------   --------------------
FINAL SINGLE POINT ENERGY       -91.024435313167
-------------------------   --------------------


                            ***************************************
                            *     ORCA property calculations      *
                            ***************************************

                                    ---------------------
                                    Active property flags
                                    ---------------------
   (+) Dipole Moment


------------------------------------------------------------------------------
                       ORCA ELECTRIC PROPERTIES CALCULATION
------------------------------------------------------------------------------

Dipole Moment Calculation                       ... on
Quadrupole Moment Calculation                   ... off
Polarizability Calculation                      ... off
GBWName                                         ... cn-sto3g-orca-uhf.gbw
Electron density file                           ... cn-sto3g-orca-uhf.scfp.tmp

-------------
DIPOLE MOMENT
-------------
                                X             Y             Z
Electronic contribution:     -0.00000      -0.00000      -0.73640
Nuclear contribution   :      0.00000       0.00000       0.00304
                        -----------------------------------------
Total Dipole Moment    :     -0.00000      -0.00000      -0.73337
                        -----------------------------------------
Magnitude (a.u.)       :      0.73337
Magnitude (Debye)      :      1.86407


Timings for individual modules:

Sum of individual times         ...       10.376 sec (=   0.173 min)
GTO integral calculation        ...        4.100 sec (=   0.068 min)  39.5 %
SCF iterations                  ...        6.276 sec (=   0.105 min)  60.5 %
                             ****ORCA TERMINATED NORMALLY****
TOTAL RUN TIME: 0 days 0 hours 0 minutes 14 seconds 407 msec
