 &FCI NORB=   7,NELEC=10,MS2=0,
  ORBSYM=1,1,1,1,1,1,1,
  ISYM=1,
 &END
 4.746653501775499    1    1    1    1
 -0.4282788207498645    1    1    2    1
 1.019193401880387    1    1    2    2
 0.763044435135333    1    1    3    3
 0.1662459863095598    1    1    4    1
 -0.1465596408585013    1    1    4    2
 0.9390469334381578    1    1    4    4
 1.115356320449676    1    1    5    5
 -0.1998232610515837    1    1    6    1
 0.2688662366812636    1    1    6    2
 -3.262184905085884e-15    1    1    6    3
 0.2669588075571458    1    1    6    4
 0.7820064386490307    1    1    6    6
 -1.802757162300272e-15    1    1    7    1
 2.47198095326695e-15    1    1    7    2
 0.3700662294209462    1    1    7    3
 2.331468351712829e-15    1    1    7    4
 0.8396967761459325    1    1    7    7
 -0.4282788207498646    2    1    1    1
 0.06108569016852211    2    1    2    1
 -0.01514189352128028    2    1    2    2
 -0.004671439503915599    2    1    3    3
 -0.02181530395178207    2    1    4    1
 0.008126016095307647    2    1    4    2
 -0.01140059759394437    2    1    4    4
 -0.01211351741763383    2    1    5    5
 0.03036271538068678    2    1    6    1
 -0.00613692334170792    2    1    6    2
 -0.003474769612536446    2    1    6    4
 -0.007414547792776925    2    1    6    6
 -0.007015848739247461    2    1    7    3
 -0.008920531247815174    2    1    7    7
 1.019193401880387    2    2    1    1
 -0.01514189352128036    2    2    2    1
 0.7237191561099071    2    2    2    2
 0.6162676868784933    2    2    3    3
 0.01261430846111672    2    2    4    1
 -0.0225031552791991    2    2    4    2
 0.6620337618814424    2    2    4    4
 0.7539984669277575    2    2    5    5
 -0.00201289821612249    2    2    6    1
 0.1319322564443536    2    2    6    2
 -1.529428602126825e-15    2    2    6    3
 0.1250025058118036    2    2    6    4
 0.5941367740658275    2    2    6    6
 1.231653667943533e-15    2    2    7    2
 0.1627218857483181    2    2    7    3
 1.006139616066548e-15    2    2    7    4
 0.6089961814328705    2    2    7    7
 0.01059395069831856    3    1    3    1
 0.01681308045248509    3    1    3    2
 -0.002563564088750692    3    1    4    3
 0.002623893216208826    3    1    6    3
 0.01436958932894918    3    1    7    1
 0.0147362768079687    3    1    7    2
 -0.008294707609650825    3    1    7    4
 0.007661084181113187    3    1    7    6
 0.01681308045248509    3    2    3    1
 0.1312258550636849    3    2    3    2
 0.02763607462126086    3    2    4    3
 -0.03754445620379955    3    2    6    3
 -1.269752718417826e-15    3    2    6    6
 0.02171947212942575    3    2    7    1
 0.05369531010162083    3    2    7    2
 -0.0728480904813802    3    2    7    4
 0.08671366186907445    3    2    7    6
 1.637578961322106e-15    3    2    7    7
 0.763044435135333    3    3    1    1
 -0.004671439503915591    3    3    2    1
 0.6162676868784935    3    3    2    2
 0.5949886898124106    3    3    3    3
 0.005584553142065202    3    3    4    1
 0.004352934129129953    3    3    4    2
 0.5672308937139411    3    3    4    4
 0.6026041517444055    3    3    5    5
 0.0005777987880269363    3    3    6    1
 0.0663960835119542    3    3    6    2
 0.04818871423709205    3    3    6    4
 0.5498090441635209    3    3    6    6
 0.08861125058020564    3    3    7    3
 0.5833370864688496    3    3    7    7
 0.1662459863095598    4    1    1    1
 -0.02181530395178207    4    1    2    1
 0.01261430846111668    4    1    2    2
 0.005584553142065199    4    1    3    3
 0.02441959009548033    4    1    4    1
 0.01848924325645714    4    1    4    2
 -0.008925353571939312    4    1    4    4
 0.004673336199799392    4    1    5    5
 0.002730347367462891    4    1    6    1
 0.01841862482002339    4    1    6    2
 0.001204188176086487    4    1    6    4
 0.01800839640343334    4    1    6    6
 -0.0002852107034056071    4    1    7    3
 0.003740208389346582    4    1    7    7
 -0.1465596408585015    4    2    1    1
 0.008126016095307699    4    2    2    1
 -0.022503155279199    4    2    2    2
 0.004352934129130126    4    2    3    3
 0.01848924325645709    4    2    4    1
 0.1296729063046146    4    2    4    2
 -0.09499535697830953    4    2    4    4
 -0.0793858380267982    4    2    5    5
 0.02076828632678531    4    2    6    1
 0.03143003015981832    4    2    6    2
 -0.04773273013962331    4    2    6    4
 0.04853723099097293    4    2    6    6
 -0.07759588451443911    4    2    7    3
 -0.01832870528256844    4    2    7    7
 -0.002563564088750693    4    3    3    1
 0.02763607462126088    4    3    3    2
 0.05512476868460258    4    3    4    3
 -0.03757392959354251    4    3    6    3
 -0.003543163800925732    4    3    7    1
 -0.03060193322598251    4    3    7    2
 -0.01265696359900455    4    3    7    4
 0.06152547055698909    4    3    7    6
 1.221245327087672e-15    4    3    7    7
 0.9390469334381579    4    4    1    1
 -0.01140059759394442    4    4    2    1
 0.6620337618814424    4    4    2    2
 0.5672308937139412    4    4    3    3
 -0.008925353571939281    4    4    4    1
 -0.09499535697830962    4    4    4    2
 0.707770389442981    4    4    4    4
 0.6934071720398428    4    4    5    5
 -0.01592293530686597    4    4    6    1
 0.06473466180878121    4    4    6    2
 -1.342968804485756e-15    4    4    6    3
 0.1319441105648358    4    4    6    4
 0.5438178570279594    4    4    6    6
 0.1438810342481243    4    4    7    3
 1.137978600240785e-15    4    4    7    4
 0.5803733934702848    4    4    7    7
 0.02596891495550692    5    1    5    1
 0.03318255470661236    5    1    5    2
 -0.0120019258393423    5    1    5    4
 0.01325613964558267    5    1    6    5
 0.03318255470661236    5    2    5    1
 0.1500587477016317    5    2    5    2
 -0.04424097450822409    5    2    5    4
 0.05176595657524817    5    2    6    5
 0.02646635999652464    5    3    5    3
 0.02388763657936048    5    3    7    5
 -0.0120019258393423    5    4    5    1
 -0.04424097450822406    5    4    5    2
 0.04883914226840621    5    4    5    4
 0.005114544105589228    5    4    6    5
 1.115356320449677    5    5    1    1
 -0.01211351741763385    5    5    2    1
 0.7539984669277578    5    5    2    2
 0.6026041517444056    5    5    3    3
 0.004673336199799373    5    5    4    1
 -0.07938583802679858    5    5    4    2
 0.693407172039843    5    5    4    4
 0.8801590933750423    5    5    5    5
 -0.005410893973260325    5    5    6    1
 0.1422440659654114    5    5    6    2
 -1.837964677844608e-15    5    5    6    3
 0.1475937214978326    5    5    6    4
 0.5779499409543301    5    5    6    6
 1.309716224362489e-15    5    5    7    2
 0.2019582514809767    5    5    7    3
 1.27675647831893e-15    5    5    7    4
 0.6097370054301111    5    5    7    7
 -0.1998232610515837    6    1    1    1
 0.03036271538068677    6    1    2    1
 -0.002012898216122417    6    1    2    2
 0.0005777987880269248    6    1    3    3
 0.002730347367462894    6    1    4    1
 0.02076828632678529    6    1    4    2
 -0.01592293530686597    6    1    4    4
 -0.005410893973260343    6    1    5    5
 0.02619666543051101    6    1    6    1
 0.009825930244781789    6    1    6    2
 -0.001770940960069869    6    1    6    4
 0.008786662284483259    6    1    6    6
 -0.005769949928839806    6    1    7    3
 -0.003747255672678225    6    1    7    7
 0.2688662366812639    6    2    1    1
 -0.006136923341707986    6    2    2    1
 0.1319322564443536    6    2    2    2
 0.06639608351195407    6    2    3    3
 0.01841862482002342    6    2    4    1
 0.03143003015981833    6    2    4    2
 0.06473466180878105    6    2    4    4
 0.1422440659654111    6    2    5    5
 0.009825930244781756    6    2    6    1
 0.09515273182613623    6    2    6    2
 0.06025201091171666    6    2    6    4
 0.09210530050600679    6    2    6    6
 0.06888172025558188    6    2    7    3
 0.06156995073196948    6    2    7    7
 -3.250114927833265e-15    6    3    1    1
 -1.516319558269636e-15    6    3    2    2
 0.002623893216208828    6    3    3    1
 -0.03754445620379958    6    3    3    2
 -0.03757392959354252    6    3    4    3
 -1.267011829343819e-15    6    3    4    4
 -1.810209102228977e-15    6    3    5    5
 0.07499022573219014    6    3    6    3
 -1.285062401421595e-15    6    3    6    4
 0.003038562281578099    6    3    7    1
 0.03025650401360636    6    3    7    2
 0.05413709673778347    6    3    7    4
 -0.06658103510652361    6    3    7    6
 -2.116362640691705e-15    6    3    7    7
 0.2669588075571458    6    4    1    1
 -0.003474769612536404    6    4    2    1
 0.1250025058118038    6    4    2    2
 0.04818871423709217    6    4    3    3
 0.001204188176086441    6    4    4    1
 -0.04773273013962338    6    4    4    2
 0.1319441105648359    6    4    4    4
 0.1475937214978329    6    4    5    5
 -0.00177094096006982    6    4    6    1
 0.06025201091171673    6    4    6    2
 -1.285752567532624e-15    6    4    6    3
 0.09556993152682751    6    4    6    4
 0.05242586784258745    6    4    6    6
 0.09989332130225431    6    4    7    3
 0.05081653837572238    6    4    7    7
 0.01325613964558267    6    5    5    1
 0.05176595657524816    6    5    5    2
 0.005114544105589228    6    5    5    4
 0.03460312953329036    6    5    6    5
 0.7820064386490312    6    6    1    1
 -0.007414547792776985    6    6    2    1
 0.5941367740658282    6    6    2    2
 -1.3067837830086e-15    6    6    3    2
 0.5498090441635208    6    6    3    3
 0.01800839640343334    6    6    4    1
 0.04853723099097264    6    6    4    2
 0.5438178570279593    6    6    4    4
 0.5779499409543294    6    6    5    5
 0.008786662284483257    6    6    6    1
 0.09210530050600688    6    6    6    2
 0.05242586784258712    6    6    6    4
 0.5818168455272557    6    6    6    6
 0.04403874240870641    6    6    7    3
 1.366962099069724e-15    6    6    7    4
 -1.609823385706477e-15    6    6    7    6
 0.550135906770411    6    6    7    7
 -1.790170925230136e-15    7    1    1    1
 0.01436958932894918    7    1    3    1
 0.02171947212942575    7    1    3    2
 -0.003543163800925737    7    1    4    3
 0.003038562281578106    7    1    6    3
 0.01952179794299815    7    1    7    1
 0.01910332779254895    7    1    7    2
 -0.01124770226912764    7    1    7    4
 0.01013593553344344    7    1    7    6
 2.471308611555867e-15    7    2    1    1
 1.200231065016603e-15    7    2    2    2
 0.0147362768079687    7    2    3    1
 0.05369531010162083    7    2    3    2
 -0.03060193322598251    7    2    4    3
 1.302777330458581e-15    7    2    5    5
 0.03025650401360633    7    2    6    3
 0.01910332779254895    7    2    7    1
 0.06781645584407395    7    2    7    2
 -0.01718859259681153    7    2    7    4
 -0.004547037178951819    7    2    7    6
 0.3700662294209462    7    3    1    1
 -0.007015848739247434    7    3    2    1
 0.1627218857483181    7    3    2    2
 0.08861125058020561    7    3    3    3
 -0.0002852107034056197    7    3    4    1
 -0.07759588451443918    7    3    4    2
 0.1438810342481244    7    3    4    4
 0.2019582514809767    7    3    5    5
 -0.00576994992883979    7    3    6    1
 0.06888172025558206    7    3    6    2
 0.09989332130225431    7    3    6    4
 0.04403874240870641    7    3    6    6
 0.1594488979077728    7    3    7    3
 1.231653667943533e-15    7    3    7    4
 -1.096345236817342e-15    7    3    7    6
 0.09564712543646919    7    3    7    7
 2.337712304489193e-15    7    4    1    1
 1.009706574942203e-15    7    4    2    2
 -0.008294707609650825    7    4    3    1
 -0.07284809048138019    7    4    3    2
 -0.01265696359900456    7    4    4    3
 1.161450413561036e-15    7    4    4    4
 1.255939796607208e-15    7    4    5    5
 0.05413709673778347    7    4    6    3
 1.334002488851007e-15    7    4    6    6
 -0.01124770226912764    7    4    7    1
 -0.01718859259681149    7    4    7    2
 1.242062008799394e-15    7    4    7    3
 0.07095268303640398    7    4    7    4
 -0.06037655940489266    7    4    7    6
 0.02388763657936048    7    5    5    3
 0.02504137190059267    7    5    7    5
 0.007661084181113187    7    6    3    1
 0.08671366186907443    7    6    3    2
 0.06152547055698916    7    6    4    3
 -0.06658103510652365    7    6    6    3
 -1.458718120083618e-15    7    6    6    6
 0.01013593553344345    7    6    7    1
 -0.0045470371789519    7    6    7    2
 -1.07552855510562e-15    7    6    7    3
 -0.0603765594048927    7    6    7    4
 0.1126458161540031    7    6    7    6
 1.582067810090848e-15    7    6    7    7
 0.8396967761459326    7    7    1    1
 -0.00892053124781518    7    7    2    1
 0.6089961814328712    7    7    2    2
 1.625461054935134e-15    7    7    3    2
 0.5833370864688499    7    7    3    3
 0.003740208389346591    7    7    4    1
 -0.01832870528256864    7    7    4    2
 1.18628391818211e-15    7    7    4    3
 0.5803733934702848    7    7    4    4
 0.6097370054301108    7    7    5    5
 -0.003747255672678241    7    7    6    1
 0.06156995073196971    7    7    6    2
 -2.071519710230393e-15    7    7    6    3
 0.05081653837572207    7    7    6    4
 0.550135906770411    7    7    6    6
 0.09564712543646926    7    7    7    3
 1.623701173514291e-15    7    7    7    6
 0.5969670835272936    7    7    7    7
 -32.56075915290209    1    1  0  0
 0.5682767016962238    2    1  0  0
 -7.564359965512896    2    2  0  0
 -6.017836739965992    3    3  0  0
 -0.2095045021338656    4    1  0  0
 0.5222633979218375    4    2  0  0
 -2.612942580790577e-15    4    3  0  0
 -6.609678706388705    4    4  0  0
 1.341525716557925e-15    5    3  0  0
 -7.347144867731388    5    5  0  0
 0.2563084161897656    6    1  0  0
 -1.219562867043755    6    2  0  0
 1.655322727666272e-14    6    3  0  0
 -1.30573061609409    6    4  0  0
 -5.291308702047489    6    6  0  0
 2.386979502944087e-15    7    1  0  0
 -1.099120794378905e-14    7    2  0  0
 -1.76657048019661    7    3  0  0
 -1.088018564132653e-14    7    4  0  0
 -3.633515081366376e-15    7    5  0  0
 3.774758283725532e-15    7    6  0  0
 -5.513360396128014    7    7  0  0
 0  0  0  0  0
